H2O                                                                     
SP        RHF                                                         Gen                 
Number of atoms                            I                3
Info1-9                                    I   N=           9
          53          52           0           0           0         110
           1           1           2
Charge                                     I                0
Multiplicity                               I                1
Number of electrons                        I               10
Number of alpha electrons                  I                5
Number of beta electrons                   I                5
Number of basis functions                  I               19
Number of independent functions            I               19
Number of point charges in /Mol/           I                0
Number of translation vectors              I                0
Atomic numbers                             I   N=           3
           8           1           1
Nuclear charges                            R   N=           3
  8.00000000E+00  1.00000000E+00  1.00000000E+00
Current cartesian coordinates              R   N=           9
 -5.34792496E-02  0.00000000E+00  0.00000000E+00  1.13364671E+00  1.45074275E+00
  0.00000000E+00  1.13364671E+00 -1.45055378E+00  0.00000000E+00
Force Field                                I                0
Int Atom Types                             I   N=           3
           0           0           0
MM charges                                 R   N=           3
  0.00000000E+00  0.00000000E+00  0.00000000E+00
Integer atomic weights                     I   N=           3
          16           1           1
Real atomic weights                        R   N=           3
  1.59949146E+01  1.00782504E+00  1.00782504E+00
Atom fragment info                         I   N=           3
           0           0           0
Atom residue num                           I   N=           3
           0           0           0
Nuclear spins                              I   N=           3
           0           1           1
Nuclear ZEff                               R   N=           3
 -5.60000000E+00 -1.00000000E+00 -1.00000000E+00
Nuclear QMom                               R   N=           3
  0.00000000E+00  0.00000000E+00  0.00000000E+00
Nuclear GFac                               R   N=           3
  0.00000000E+00  2.79284600E+00  2.79284600E+00
MicOpt                                     I   N=           3
          -1          -1          -1
Number of contracted shells                I               13
Number of primitive shells                 I               26
Pure/Cartesian d shells                    I                1
Pure/Cartesian f shells                    I                0
Highest angular momentum                   I                1
Largest degree of contraction              I                6
Shell types                                I   N=          13
           0           0           0           0           1           1
           1           0           0           0           0           0
           0
Number of primitives per shell             I   N=          13
           6           3           1           1           3           1
           1           3           1           1           3           1
           1
Shell to atom map                          I   N=          13
           1           1           1           1           1           1
           1           2           2           2           3           3
           3
Primitive exponents                        R   N=          26
  8.58850000E+03  1.29723000E+03  2.99296000E+02  8.73771000E+01  2.56789000E+01
  3.74004000E+00  4.21175000E+01  9.62837000E+00  2.85332000E+00  9.05661000E-01
  2.55611000E-01  4.21175000E+01  9.62837000E+00  2.85332000E+00  9.05661000E-01
  2.55611000E-01  3.38650000E+01  5.09479000E+00  1.15879000E+00  3.25840000E-01
  1.02741000E-01  3.38650000E+01  5.09479000E+00  1.15879000E+00  3.25840000E-01
  1.02741000E-01
Contraction coefficients                   R   N=          26
  1.89515008E-03  1.43859006E-02  7.07320031E-02  2.40001011E-01  5.94797026E-01
  2.80802012E-01  1.13889012E-01  9.20811101E-01 -3.27447036E-03  1.00000000E+00
  1.00000000E+00  3.65113974E-02  2.37152983E-01  8.19701941E-01  1.00000000E+00
  1.00000000E+00  2.54938145E-02  1.90373109E-01  8.52161486E-01  1.00000000E+00
  1.00000000E+00  2.54938145E-02  1.90373109E-01  8.52161486E-01  1.00000000E+00
  1.00000000E+00
Coordinates of each shell                  R   N=          39
 -5.34792496E-02  0.00000000E+00  0.00000000E+00 -5.34792496E-02  0.00000000E+00
  0.00000000E+00 -5.34792496E-02  0.00000000E+00  0.00000000E+00 -5.34792496E-02
  0.00000000E+00  0.00000000E+00 -5.34792496E-02  0.00000000E+00  0.00000000E+00
 -5.34792496E-02  0.00000000E+00  0.00000000E+00 -5.34792496E-02  0.00000000E+00
  0.00000000E+00  1.13364671E+00  1.45074275E+00  0.00000000E+00  1.13364671E+00
  1.45074275E+00  0.00000000E+00  1.13364671E+00  1.45074275E+00  0.00000000E+00
  1.13364671E+00 -1.45055378E+00  0.00000000E+00  1.13364671E+00 -1.45055378E+00
  0.00000000E+00  1.13364671E+00 -1.45055378E+00  0.00000000E+00
Constraint Structure                       R   N=           9
 -5.34792496E-02  0.00000000E+00  0.00000000E+00  1.13364671E+00  1.45074275E+00
  0.00000000E+00  1.13364671E+00 -1.45055378E+00  0.00000000E+00
Num ILSW                                   I              100
ILSW                                       I   N=         100
           0           1           0           0           2           0
           0           0           0           0           0          -1
           0           0           0           0           0           0
           0           0           1           0           0           0
           1           1           0           0           0           0
           0           0      100000           0          -1           0
           0           0           0           0           0           0
           0           0           0           1           0           0
           0           0           1           0           0           0
           0           0           4          40           0           0
           0           0           0           0           0           0
           0           0           0           0           0           0
           0           0           0           0           0           0
           0           0           0           0           0           0
           0           0           0           0           0           0
           0           0           0           0           0           0
           0           0           0           0
Num RLSW                                   I               40
RLSW                                       R   N=          40
  1.00000000E+00  1.00000000E+00  1.00000000E+00  1.00000000E+00  1.00000000E+00
  0.00000000E+00  0.00000000E+00  1.00000000E+00  0.00000000E+00  0.00000000E+00
  0.00000000E+00  0.00000000E+00  1.00000000E+00  0.00000000E+00  0.00000000E+00
  0.00000000E+00  0.00000000E+00  1.00000000E+00  0.00000000E+00  0.00000000E+00
  0.00000000E+00  0.00000000E+00  1.00000000E+00  0.00000000E+00  0.00000000E+00
  0.00000000E+00  0.00000000E+00  1.00000000E+00  0.00000000E+00  0.00000000E+00
  0.00000000E+00  0.00000000E+00  0.00000000E+00  0.00000000E+00  0.00000000E+00
  0.00000000E+00  0.00000000E+00  0.00000000E+00  1.00000000E+00  1.00000000E+00
MxBond                                     I                2
NBond                                      I   N=           3
           2           1           1
IBond                                      I   N=           6
           2           3           1           0           1           0
RBond                                      R   N=           6
  1.00000000E+00  1.00000000E+00  1.00000000E+00  0.00000000E+00  1.00000000E+00
  0.00000000E+00
Virial Ratio                               R      2.000567359778030E+00
SCF Energy                                 R     -7.600504273765834E+01
Total Energy                               R     -7.600504273765834E+01
RMS Density                                R      4.076323456871054E-10
External E-field                           R   N=          35
  0.00000000E+00  0.00000000E+00  0.00000000E+00  0.00000000E+00  0.00000000E+00
  0.00000000E+00  0.00000000E+00  0.00000000E+00  0.00000000E+00  0.00000000E+00
  0.00000000E+00  0.00000000E+00  0.00000000E+00  0.00000000E+00  0.00000000E+00
  0.00000000E+00  0.00000000E+00  0.00000000E+00  0.00000000E+00  0.00000000E+00
  0.00000000E+00  0.00000000E+00  0.00000000E+00  0.00000000E+00  0.00000000E+00
  0.00000000E+00  0.00000000E+00  0.00000000E+00  0.00000000E+00  0.00000000E+00
  0.00000000E+00  0.00000000E+00  0.00000000E+00  0.00000000E+00  0.00000000E+00
IOpCl                                      I                0
IROHF                                      I                0
Alpha Orbital Energies                     R   N=          19
 -2.05619900E+01 -1.34420246E+00 -6.87755602E-01 -5.64809905E-01 -5.04028527E-01
  1.35465803E-01  2.09480650E-01  5.33611479E-01  5.83844949E-01  9.99483865E-01
  1.03259713E+00  1.14965517E+00  1.43264385E+00  2.45971812E+00  2.50053445E+00
  5.30329493E+00  5.41121140E+00  5.50489720E+00  5.14184315E+01
Alpha MO coefficients                      R   N=         361
  5.51485377E-01  4.71696398E-01  5.32761351E-03 -6.98441351E-05  2.53573829E-03
  4.45183784E-09  3.69737801E-16 -9.51412297E-04 -2.49082190E-08 -3.91748700E-16
  3.76028518E-04  1.69157132E-08  1.47925304E-16  1.95460809E-04 -1.21736558E-04
  8.77910794E-05  1.95510574E-04 -1.21769165E-04  8.78180832E-05 -1.13541567E-01
 -1.90467177E-01  5.44225868E-01  4.49021640E-01  3.91466539E-02 -6.19693544E-06
  1.13681477E-17  8.90771088E-02 -1.04027598E-05 -1.49578386E-16  5.69190313E-02
 -9.29325572E-07 -1.59894943E-16  9.23137326E-02  3.96538998E-02 -3.56924173E-03
  9.23352342E-02  3.96576699E-02 -3.56922238E-03 -5.83894223E-06 -9.75096753E-06
  2.50178901E-05  5.94229856E-05 -2.74417274E-05  2.19591157E-01 -1.34403353E-16
 -4.07975817E-05  3.64924177E-01 -1.62283062E-16 -2.19104536E-05  2.36463984E-01
 -1.62000067E-16  1.52920164E-01  2.04156718E-01  5.65072828E-02 -1.52938470E-01
 -2.04172974E-01 -5.65034605E-02  4.12834826E-02  6.98089205E-02 -2.14270249E-01
 -2.83852954E-01  2.47830246E-01  2.07631944E-05 -3.44337433E-16  3.76125253E-01
  3.51598994E-05  4.98045578E-16  3.73664548E-01  3.26112346E-05 -2.95405893E-16
  9.09104873E-02  1.18695041E-01  3.53208581E-02  9.08926271E-02  1.18660897E-01
  3.52998264E-02 -5.72087444E-18 -5.11810368E-17  3.38045088E-16 -1.01589894E-15
  8.41051696E-18 -2.31694753E-17  2.94599526E-01 -6.42889947E-17 -6.67055181E-18
  4.40836675E-01 -3.49957768E-16  8.34601029E-17  4.85644938E-01 -7.47643609E-17
  1.08537086E-15 -2.78123164E-16  3.63423850E-18 -1.34499071E-16  7.73536171E-16
 -3.32126705E-02 -5.42961020E-02  1.05776681E-01  8.31847910E-01  8.73037932E-02
  2.06882754E-05  1.86696250E-16  1.42012168E-01  2.62217697E-05  6.11946387E-16
  2.41166221E-01  7.00197381E-05 -6.80958531E-16 -4.05091035E-02  3.46416551E-02
 -8.14884388E-01 -4.04949038E-02  3.46552585E-02 -8.14730493E-01  2.64928984E-06
  4.27465963E-06 -6.03688479E-06 -9.62453806E-05 -4.20575402E-06  1.31075933E-01
  1.83712825E-16 -8.38838965E-06  1.53878988E-01 -2.37487268E-16 -7.94560671E-06
  5.34474834E-01 -3.55900723E-17 -3.09726984E-02  8.61575088E-02 -1.51167271E+00
  3.09666112E-02 -8.61968598E-02  1.51183821E+00  1.41592992E-05  2.47775774E-05
 -7.00146403E-05 -2.70309009E-04 -5.04656247E-05 -1.28877954E-01  5.31169869E-17
 -8.20011679E-05 -1.92178634E-01 -1.94167460E-16 -3.04638531E-04 -9.48996227E-01
 -1.18637580E-16  9.06965030E-02  1.35960873E+00 -8.50650613E-01 -9.06221856E-02
 -1.35826803E+00  8.49965553E-01  3.30011670E-02  5.77257091E-02 -1.53744592E-01
 -9.81284813E-01 -1.18495713E-01  5.34491218E-05  1.90020295E-16 -1.97346857E-01
  7.89280483E-05  1.85436251E-15 -9.12862074E-01  5.26003889E-04 -2.14576909E-15
  7.33195807E-02  1.63699190E+00 -6.74263157E-01  7.33948824E-02  1.63840056E+00
 -6.74927855E-01  9.80813715E-17  1.79100317E-16 -3.98697273E-16 -3.53916113E-15
  1.01361079E-15 -1.13652072E-15 -2.41084796E-01  3.80260018E-15 -4.42578935E-15
 -8.35448826E-01 -8.75107933E-15  7.07679681E-15  1.13718474E+00  2.92029383E-16
  4.92265423E-15 -4.12063393E-15  3.86401579E-16  6.83940991E-15 -9.39696134E-16
 -2.42754534E-02 -4.42098896E-02  1.88852361E-01  2.81576495E-01 -2.23484791E-01
  6.39937414E-06 -1.12386303E-15 -8.36558640E-01  2.41178252E-05 -3.92829989E-15
  1.41662191E+00 -6.69661910E-05  5.31851989E-15 -4.55323555E-02 -3.54689487E-01
 -3.80967664E-02 -4.55487320E-02 -3.54692674E-01 -3.82201419E-02 -1.55588243E-06
 -3.22866892E-06  2.08396095E-05 -1.81160414E-05 -7.10362331E-06 -2.39550201E-01
  7.93873734E-16 -2.72439944E-05 -9.07044150E-01  4.58733441E-15  5.06944791E-05
  1.67745479E+00 -5.98072294E-15 -1.43452810E-02 -2.00469674E-01 -6.95682107E-01
  1.43687969E-02  2.00330665E-01  6.95746116E-01  1.17214545E-01  2.47559909E-01
 -1.80431192E+00  2.82387616E+00 -5.40313748E-02 -2.80189240E-06 -4.41429606E-16
 -1.73655280E-01 -8.01821238E-06 -7.19634922E-16  8.54324262E-01 -2.04619765E-05
  5.59176560E-16  2.30407982E-02 -7.49284721E-01 -2.82705842E-01  2.29943322E-02
 -7.49259996E-01 -2.82864471E-01 -3.44846780E-03  3.41720883E-03 -1.73528974E-01
 -3.11433052E-01  1.51160510E-01 -2.17767277E-05 -9.14082626E-16 -1.56303833E-02
 -4.52745845E-05  1.07521945E-15 -3.33753655E-01  6.55176371E-05 -1.38760489E-16
 -1.09118827E+00  1.54939413E+00 -5.09959721E-01 -1.09129318E+00  1.54960235E+00
 -5.10001278E-01  5.84586397E-06  1.19294683E-05 -6.56832609E-05  1.06412378E-04
 -1.32516838E-05  1.58451505E-01  7.60153952E-17 -3.72170998E-05 -8.28339896E-02
 -2.65600378E-16  5.40657217E-05 -2.25168131E-01 -2.96671776E-16 -1.11157121E+00
  1.62357318E+00 -8.13870699E-01  1.11146092E+00 -1.62349754E+00  8.13793535E-01
 -5.34292004E-17 -1.28585101E-16  1.49674665E-15 -3.48910188E-15 -1.39921465E-14
  5.45110510E-15 -1.26975662E+00  1.55786081E-14 -4.10497085E-15  1.37094701E+00
 -7.30175391E-15  1.15622582E-15 -5.24187134E-01  9.94094153E-16 -3.41330447E-16
 -7.60510017E-16 -8.96690745E-16  2.23187382E-16  3.80913981E-15 -3.81709941E-03
 -9.93650875E-03  7.97362538E-02 -3.20445864E-01 -1.27242561E+00 -3.79199465E-04
  1.39374197E-14  1.40653468E+00  4.19701037E-04 -1.53730418E-14 -6.86721721E-01
 -2.12222791E-04  5.88301997E-15 -2.11820355E-01  3.38324292E-01 -1.69649802E-02
 -2.11759279E-01  3.38259711E-01 -1.70720463E-02  2.24032539E-06  4.63007797E-06
 -2.81322712E-05  1.15044807E-04  3.77315607E-04 -1.28137636E+00 -5.38265551E-15
 -4.29271451E-04  1.45979577E+00  4.95837370E-15  2.15687893E-04 -7.76109776E-01
 -8.57737266E-16 -2.22667837E-01  2.63719543E-01  1.65154199E-01  2.22846582E-01
 -2.63968330E-01 -1.65136552E-01 -2.24643050E+00  2.32887567E+00 -2.43539719E-01
  2.36476090E-01  4.36566274E-03 -5.41410012E-07 -1.07416728E-16 -1.43434923E-02
  8.42295886E-07 -2.04213774E-16  5.14256353E-02 -3.17322021E-06 -3.48035228E-16
  1.37592798E-03 -3.76920460E-02 -3.00014914E-02  1.38377966E-03 -3.77040493E-02
 -3.00065907E-02
Total SCF Density                          R   N=         190
  6.37464269E-01  5.69283126E-01  5.27297046E-01 -1.35399958E-01 -2.32204248E-01
  6.84243838E-01 -1.25479155E-01 -2.10744597E-01  6.10380129E-01  5.64385882E-01
  1.43698919E-02  2.20814163E-02 -6.35690363E-02 -1.05539663E-01  1.25917444E-01
  5.62123561E-07  9.81285324E-07 -4.65547251E-06  8.74501932E-06 -2.24558215E-06
  9.64405533E-02  3.73428406E-16  2.66248614E-16  3.63044976E-16 -3.92942833E-16
 -1.62946450E-16 -7.26934452E-17  1.73577762E-01  9.77823214E-03  1.76837101E-02
 -6.42389092E-02 -1.33533301E-01  1.93399747E-01 -3.40247147E-06 -2.95574319E-16
  2.98811688E-01  9.76322075E-07  1.73149199E-06 -8.13134224E-06  1.40671606E-05
 -3.41551932E-06  1.60268246E-01 -1.02048818E-16 -5.18024388E-06  2.66339313E-01
 -3.62040566E-16 -2.88179098E-16 -8.23785007E-17 -1.31272687E-15  2.40588021E-16
 -9.16772274E-17  2.59740551E-01  2.92083795E-16 -1.24285120E-16  3.88673948E-01
  1.83417445E-02  3.08425661E-02 -9.81727678E-02 -1.61015873E-01  1.89669041E-01
  5.18881183E-06 -4.61950087E-16  2.91228997E-01  9.10045857E-06  4.63402951E-17
  2.85730226E-01  1.60903284E-07  3.11575095E-07 -3.15492056E-06  8.75462439E-06
  3.11346602E-06  1.03850801E-01 -1.44109584E-17  5.07190483E-06  1.72582852E-01
 -3.13090204E-18  1.39034783E-05  1.11830434E-01  1.69521226E-16  1.09508747E-16
  2.82463304E-16 -9.62661184E-16 -1.50011594E-16 -9.36621251E-17  2.86141537E-01
 -3.13416698E-16 -1.24731975E-16  4.28180200E-01 -5.78759640E-16  4.43062551E-18
  4.71702012E-01 -1.32428869E-02 -2.22913321E-02  6.15299511E-02  3.13094532E-02
  5.22808828E-02  6.71624627E-02 -1.45521413E-16  8.48206914E-02  1.11613002E-01
 -5.27647387E-17  7.84423147E-02  7.23259806E-02 -2.05338179E-16  8.03423136E-02
  6.58901470E-04  1.34758578E-03 -7.69535787E-03 -3.17486774E-02  6.19252552E-02
  8.96664574E-02  5.03690059E-16  9.63364875E-02  1.49010966E-01  9.97143938E-16
  9.32093430E-02  9.65590900E-02  9.05219565E-16  9.13417573E-02  1.14681850E-01
  3.82302177E-03  6.37278821E-03 -1.90176027E-02 -2.32504899E-02  1.72250501E-02
  2.48185102E-02 -2.03400261E-16  2.59294801E-02  4.12443054E-02 -2.27372359E-16
  2.59875792E-02  2.67261848E-02 -3.08147180E-16  2.30453331E-02  3.11744142E-02
  8.90676645E-03 -1.32456176E-02 -2.22960046E-02  6.15457051E-02  3.13025518E-02
  5.22905005E-02 -6.71652409E-02 -1.70993552E-17  8.48360431E-02 -1.11617420E-01
  1.15604307E-16  7.84448180E-02 -7.23231232E-02 -3.00884838E-17 -1.32008691E-02
 -3.35469673E-02 -1.15225628E-02  8.03549577E-02  6.59958622E-04  1.34931493E-03
 -7.69705356E-03 -3.17744361E-02  6.19310367E-02 -8.96647229E-02 -1.05270815E-16
  9.63447918E-02 -1.49007790E-01  5.41119990E-17  9.32021484E-02 -9.65514440E-02
 -1.47309919E-16 -3.35474420E-02 -5.20524564E-02 -1.49752276E-02  9.13461583E-02
  1.14679514E-01  3.82263036E-03  6.37207385E-03 -1.90142230E-02 -2.32519636E-02
  1.72208296E-02 -2.48138104E-02  4.46628974E-16  2.59228836E-02 -4.12364011E-02
  7.36506134E-16  2.59768161E-02 -2.67197578E-02  7.49946809E-16 -1.15217303E-02
 -1.49743820E-02 -3.86657948E-03  2.30409979E-02  3.11672617E-02  8.90293172E-03
QEq coupling tensors                       R   N=          18
 -3.64032657E-01 -1.08007771E-04 -1.98531290E+00  0.00000000E+00  0.00000000E+00
  2.34934556E+00 -2.87968983E-02 -2.93729491E-01 -2.19026842E-01  2.12864049E-16
  2.60133286E-16  2.47823740E-01 -2.88579551E-02  2.93893830E-01 -2.19078513E-01
  2.12930434E-16 -2.60180518E-16  2.47936468E-01
Mulliken Charges                           R   N=           3
 -7.78616044E-01  3.89304715E-01  3.89311329E-01
ONIOM Charges                              I   N=          16
           0           0           0           0           0           0
           0           0           0           0           0           0
           0           0           0           0
ONIOM Multiplicities                       I   N=          16
           1           0           0           0           0           0
           0           0           0           0           0           0
           0           0           0           0
Atom Layers                                I   N=           3
           1           1           1
Atom Modifiers                             I   N=           3
           0           0           0
Force Field                                I                0
Int Atom Modified Types                    I   N=           3
           0           0           0
Link Atoms                                 I   N=           3
           0           0           0
Atom Modified MM Charges                   R   N=           3
  0.00000000E+00  0.00000000E+00  0.00000000E+00
Link Distances                             R   N=          12
  0.00000000E+00  0.00000000E+00  0.00000000E+00  0.00000000E+00  0.00000000E+00
  0.00000000E+00  0.00000000E+00  0.00000000E+00  0.00000000E+00  0.00000000E+00
  0.00000000E+00  0.00000000E+00
Cartesian Gradient                         R   N=           9
  0.00000000E+00  0.00000000E+00  0.00000000E+00  0.00000000E+00  0.00000000E+00
  0.00000000E+00  0.00000000E+00  0.00000000E+00  0.00000000E+00
Dipole Moment                              R   N=           3
  1.05445821E+00  4.03128982E-05  6.75778714E-16
Quadrupole Moment                          R   N=           6
  1.14694067E-01  1.08391267E+00 -1.19860674E+00  5.58333395E-05  1.52185189E-16
  5.61047468E-17
